                         Program Version 6.1.0  -  RELEASE   -
|  1> !noautostart
|  2> !hf
|  3> !def2-svp
|  4> !sp
|  5>
|  6> * xyz 0 1
|  7> O            -3.5662600000000002             1.7763899999999999             0.0000000000000000
|  8> H            -2.5962600000000000             1.7763899999999999             0.0000000000000000
|  9> H            -3.8895900000000001             1.3604000000000001            -0.8144400000000001
| 10> *
| 11>
| 12>                          ****END OF INPUT****

CARTESIAN COORDINATES (ANGSTROEM)
---------------------------------
  O     -3.566260    1.776390    0.000000
  H     -2.596260    1.776390    0.000000
  H     -3.889590    1.360400   -0.814440

 Total Charge           Charge          ....    0
 Multiplicity           Mult            ....    1
 Number of Electrons    NEL             ....   10
 Basis Dimension        Dim             ....   24

ORBITAL ENERGIES
----------------

  NO   OCC          E(Eh)            E(eV)
   0   2.0000     -20.544739      -559.0508
   1   2.0000      -1.308293       -35.6005
   2   2.0000      -0.705499       -19.1976
   3   2.0000      -0.555927       -15.1275
   4   2.0000      -0.495101       -13.4724
   5   0.0000       0.174984         4.7616
   6   0.0000       0.253027         6.8852
   7   0.0000       0.804509        21.8918
   8   0.0000       0.833961        22.6932
   9   0.0000       1.185336        32.2546

MULLIKEN ATOMIC CHARGES
-----------------------
   0 O :   -0.376227
   1 H :    0.188113
   2 H :    0.188114
Sum of atomic charges:   -0.0000000

LOEWDIN ATOMIC CHARGES
----------------------
   0 O :   -0.171907
   1 H :    0.085953
   2 H :    0.085954

  Mayer bond orders larger than 0.100000
B(  0-O ,  1-H ) :   0.9877 B(  0-O ,  2-H ) :   0.9877

FINAL SINGLE POINT ENERGY       -75.959335130325

DIPOLE MOMENT
-------------

Method             : SCF
Type of density    : Electron Density
Multiplicity       :   1
Irrep              :   0
Energy             :   -75.9593351303253854 Eh
Basis              : AO
                                X                 Y                 Z
Electronic contribution:     -0.068853228       0.044292161       0.086716580
Nuclear contribution   :      0.538262653      -0.346253701      -0.677907797
                        -----------------------------------------
Total Dipole Moment    :      0.469409425      -0.301961540      -0.591191217
                        -----------------------------------------
Magnitude (a.u.)       :      0.813039381
Magnitude (Debye)      :      2.066581873

Rotational constants in cm-1:            30.020790            13.330747             9.231496
Rotational constants in MHz :        900000.632236        399645.731219        276753.292958

                             ****ORCA TERMINATED NORMALLY****
TOTAL RUN TIME: 0 days 0 hours 0 minutes 0 seconds 230 msec
